
Host: DESKTOP-UJ2LAF7

Timers On : Sat Nov 13 14:14:36 2021
Timers Off: Sat Nov 13 17:13:48 2021

Wall Time:    10752.20 seconds

                                                       Time (seconds)
Module                                       User      System        Wall        Calls

--------------------------------------------------------------------------------------

**************************************************************************************
