
Host: DESKTOP-UJ2LAF7

Timers On : Sat Oct 30 09:33:05 2021
Timers Off: Sat Oct 30 09:33:16 2021

Wall Time:       11.25 seconds

                                                       Time (seconds)
Module                                       User      System        Wall        Calls

--------------------------------------------------------------------------------------

**************************************************************************************

Host: DESKTOP-UJ2LAF7

Timers On : Sat Oct 30 09:34:13 2021
Timers Off: Sat Oct 30 09:34:42 2021

Wall Time:       28.86 seconds

                                                       Time (seconds)
Module                                       User      System        Wall        Calls

--------------------------------------------------------------------------------------

**************************************************************************************

Host: DESKTOP-UJ2LAF7

Timers On : Sat Oct 30 09:36:40 2021
Timers Off: Sat Oct 30 09:37:09 2021

Wall Time:       29.04 seconds

                                                       Time (seconds)
Module                                       User      System        Wall        Calls

--------------------------------------------------------------------------------------

**************************************************************************************

Host: DESKTOP-UJ2LAF7

Timers On : Sat Oct 30 09:38:27 2021
Timers Off: Sat Oct 30 09:38:56 2021

Wall Time:       29.49 seconds

                                                       Time (seconds)
Module                                       User      System        Wall        Calls

--------------------------------------------------------------------------------------

**************************************************************************************

Host: DESKTOP-UJ2LAF7

Timers On : Sat Oct 30 09:41:04 2021
Timers Off: Sat Oct 30 09:41:33 2021

Wall Time:       29.15 seconds

                                                       Time (seconds)
Module                                       User      System        Wall        Calls

--------------------------------------------------------------------------------------

**************************************************************************************
