
Host: DESKTOP-UJ2LAF7

Timers On : Sun Nov 28 18:14:04 2021
Timers Off: Sun Nov 28 18:14:04 2021

Wall Time:        0.46 seconds

                                                       Time (seconds)
Module                                       User      System        Wall        Calls

--------------------------------------------------------------------------------------

**************************************************************************************

Host: DESKTOP-UJ2LAF7

Timers On : Sun Nov 28 18:15:00 2021
Timers Off: Sun Nov 28 18:15:01 2021

Wall Time:        0.45 seconds

                                                       Time (seconds)
Module                                       User      System        Wall        Calls

--------------------------------------------------------------------------------------

**************************************************************************************

Host: DESKTOP-UJ2LAF7

Timers On : Sun Nov 28 19:06:53 2021
Timers Off: Sun Nov 28 19:06:53 2021

Wall Time:        0.47 seconds

                                                       Time (seconds)
Module                                       User      System        Wall        Calls

--------------------------------------------------------------------------------------

**************************************************************************************

Host: DESKTOP-UJ2LAF7

Timers On : Mon Nov 29 08:33:02 2021
Timers Off: Mon Nov 29 08:33:03 2021

Wall Time:        0.50 seconds

                                                       Time (seconds)
Module                                       User      System        Wall        Calls

--------------------------------------------------------------------------------------

**************************************************************************************

Host: DESKTOP-UJ2LAF7

Timers On : Mon Nov 29 08:33:47 2021
Timers Off: Mon Nov 29 08:33:48 2021

Wall Time:        0.50 seconds

                                                       Time (seconds)
Module                                       User      System        Wall        Calls

--------------------------------------------------------------------------------------

**************************************************************************************

Host: DESKTOP-UJ2LAF7

Timers On : Mon Nov 29 08:34:13 2021
Timers Off: Mon Nov 29 08:34:13 2021

Wall Time:        0.46 seconds

                                                       Time (seconds)
Module                                       User      System        Wall        Calls

--------------------------------------------------------------------------------------

**************************************************************************************

Host: DESKTOP-UJ2LAF7

Timers On : Mon Nov 29 08:39:46 2021
Timers Off: Mon Nov 29 08:39:46 2021

Wall Time:        0.46 seconds

                                                       Time (seconds)
Module                                       User      System        Wall        Calls

--------------------------------------------------------------------------------------

**************************************************************************************

Host: DESKTOP-UJ2LAF7

Timers On : Mon Nov 29 08:40:02 2021
Timers Off: Mon Nov 29 08:40:02 2021

Wall Time:        0.50 seconds

                                                       Time (seconds)
Module                                       User      System        Wall        Calls

--------------------------------------------------------------------------------------

**************************************************************************************

Host: DESKTOP-UJ2LAF7

Timers On : Mon Nov 29 08:42:53 2021
Timers Off: Mon Nov 29 08:42:53 2021

Wall Time:        0.47 seconds

                                                       Time (seconds)
Module                                       User      System        Wall        Calls

--------------------------------------------------------------------------------------

**************************************************************************************

Host: DESKTOP-UJ2LAF7

Timers On : Mon Nov 29 08:43:05 2021
Timers Off: Mon Nov 29 08:43:06 2021

Wall Time:        0.48 seconds

                                                       Time (seconds)
Module                                       User      System        Wall        Calls

--------------------------------------------------------------------------------------

**************************************************************************************

Host: DESKTOP-UJ2LAF7

Timers On : Mon Nov 29 11:58:26 2021
Timers Off: Mon Nov 29 11:58:27 2021

Wall Time:        0.46 seconds

                                                       Time (seconds)
Module                                       User      System        Wall        Calls

--------------------------------------------------------------------------------------

**************************************************************************************

Host: DESKTOP-UJ2LAF7

Timers On : Mon Nov 29 15:48:48 2021
Timers Off: Mon Nov 29 15:48:48 2021

Wall Time:        0.46 seconds

                                                       Time (seconds)
Module                                       User      System        Wall        Calls

--------------------------------------------------------------------------------------

**************************************************************************************
