
Host: DESKTOP-UJ2LAF7

Timers On : Sat Oct 30 09:18:45 2021
Timers Off: Sat Oct 30 11:59:09 2021

Wall Time:     9623.83 seconds

                                                       Time (seconds)
Module                                       User      System        Wall        Calls

--------------------------------------------------------------------------------------

**************************************************************************************
