
Host: DESKTOP-UJ2LAF7

Timers On : Sat Oct 30 09:26:36 2021
Timers Off: Sat Oct 30 09:26:37 2021

Wall Time:        0.42 seconds

                                                       Time (seconds)
Module                                       User      System        Wall        Calls

--------------------------------------------------------------------------------------

**************************************************************************************

Host: DESKTOP-UJ2LAF7

Timers On : Sat Oct 30 09:27:17 2021
Timers Off: Sat Oct 30 09:27:17 2021

Wall Time:        0.42 seconds

                                                       Time (seconds)
Module                                       User      System        Wall        Calls

--------------------------------------------------------------------------------------

**************************************************************************************

Host: DESKTOP-UJ2LAF7

Timers On : Sat Oct 30 09:30:34 2021
Timers Off: Sat Oct 30 09:30:34 2021

Wall Time:        0.41 seconds

                                                       Time (seconds)
Module                                       User      System        Wall        Calls

--------------------------------------------------------------------------------------

**************************************************************************************

Host: DESKTOP-UJ2LAF7

Timers On : Sat Oct 30 09:31:01 2021
Timers Off: Sat Oct 30 09:31:01 2021

Wall Time:        0.41 seconds

                                                       Time (seconds)
Module                                       User      System        Wall        Calls

--------------------------------------------------------------------------------------

**************************************************************************************

Host: DESKTOP-UJ2LAF7

Timers On : Sat Oct 30 09:31:54 2021
Timers Off: Sat Oct 30 09:31:55 2021

Wall Time:        0.41 seconds

                                                       Time (seconds)
Module                                       User      System        Wall        Calls

--------------------------------------------------------------------------------------

**************************************************************************************
<<<<<<< HEAD

Host: DESKTOP-UJ2LAF7

Timers On : Thu Nov  4 22:05:01 2021
Timers Off: Thu Nov  4 22:05:02 2021

Wall Time:        1.63 seconds

                                                       Time (seconds)
Module                                       User      System        Wall        Calls

--------------------------------------------------------------------------------------

**************************************************************************************

Host: DESKTOP-UJ2LAF7

Timers On : Thu Nov  4 22:06:54 2021
Timers Off: Thu Nov  4 22:06:55 2021

Wall Time:        0.80 seconds

                                                       Time (seconds)
Module                                       User      System        Wall        Calls

--------------------------------------------------------------------------------------

**************************************************************************************

Host: DESKTOP-UJ2LAF7

Timers On : Thu Nov  4 22:08:21 2021
Timers Off: Thu Nov  4 22:08:22 2021

Wall Time:        0.84 seconds

                                                       Time (seconds)
Module                                       User      System        Wall        Calls

--------------------------------------------------------------------------------------

**************************************************************************************

Host: DESKTOP-UJ2LAF7

Timers On : Thu Nov  4 22:08:36 2021
Timers Off: Thu Nov  4 22:08:37 2021

Wall Time:        0.88 seconds

                                                       Time (seconds)
Module                                       User      System        Wall        Calls

--------------------------------------------------------------------------------------

**************************************************************************************

Host: DESKTOP-UJ2LAF7

Timers On : Thu Nov  4 22:09:10 2021
Timers Off: Thu Nov  4 22:09:11 2021

Wall Time:        0.85 seconds

                                                       Time (seconds)
Module                                       User      System        Wall        Calls

--------------------------------------------------------------------------------------

**************************************************************************************

Host: DESKTOP-UJ2LAF7

Timers On : Fri Nov  5 00:05:10 2021
Timers Off: Fri Nov  5 00:05:11 2021

Wall Time:        0.85 seconds

                                                       Time (seconds)
Module                                       User      System        Wall        Calls

--------------------------------------------------------------------------------------

**************************************************************************************

Host: DESKTOP-UJ2LAF7

Timers On : Fri Nov  5 00:08:49 2021
Timers Off: Fri Nov  5 00:08:50 2021

Wall Time:        0.89 seconds

                                                       Time (seconds)
Module                                       User      System        Wall        Calls

--------------------------------------------------------------------------------------

**************************************************************************************

Host: DESKTOP-UJ2LAF7

Timers On : Fri Nov  5 00:10:43 2021
Timers Off: Fri Nov  5 00:10:44 2021

Wall Time:        0.87 seconds

                                                       Time (seconds)
Module                                       User      System        Wall        Calls

--------------------------------------------------------------------------------------

**************************************************************************************

Host: DESKTOP-UJ2LAF7

Timers On : Fri Nov  5 00:13:28 2021
Timers Off: Fri Nov  5 00:13:29 2021

Wall Time:        0.88 seconds

                                                       Time (seconds)
Module                                       User      System        Wall        Calls

--------------------------------------------------------------------------------------

**************************************************************************************

Host: DESKTOP-UJ2LAF7

Timers On : Fri Nov  5 00:14:31 2021
Timers Off: Fri Nov  5 00:14:32 2021

Wall Time:        0.86 seconds

                                                       Time (seconds)
Module                                       User      System        Wall        Calls

--------------------------------------------------------------------------------------

**************************************************************************************

Host: DESKTOP-UJ2LAF7

Timers On : Fri Nov  5 00:20:32 2021
Timers Off: Fri Nov  5 00:20:59 2021

Wall Time:       27.19 seconds

                                                       Time (seconds)
Module                                       User      System        Wall        Calls

--------------------------------------------------------------------------------------

**************************************************************************************

Host: DESKTOP-UJ2LAF7

Timers On : Fri Nov  5 00:21:28 2021
Timers Off: Fri Nov  5 00:21:29 2021

Wall Time:        0.83 seconds

                                                       Time (seconds)
Module                                       User      System        Wall        Calls

--------------------------------------------------------------------------------------

**************************************************************************************

Host: DESKTOP-UJ2LAF7

Timers On : Fri Nov  5 00:22:02 2021
Timers Off: Fri Nov  5 00:22:03 2021

Wall Time:        0.90 seconds

                                                       Time (seconds)
Module                                       User      System        Wall        Calls

--------------------------------------------------------------------------------------

**************************************************************************************

Host: DESKTOP-UJ2LAF7

Timers On : Fri Nov  5 00:26:07 2021
Timers Off: Fri Nov  5 00:26:08 2021

Wall Time:        0.91 seconds

                                                       Time (seconds)
Module                                       User      System        Wall        Calls

--------------------------------------------------------------------------------------

**************************************************************************************

Host: DESKTOP-UJ2LAF7

Timers On : Fri Nov  5 00:26:18 2021
Timers Off: Fri Nov  5 00:26:23 2021

Wall Time:        5.06 seconds

                                                       Time (seconds)
Module                                       User      System        Wall        Calls

--------------------------------------------------------------------------------------

**************************************************************************************

Host: DESKTOP-UJ2LAF7

Timers On : Fri Nov 12 18:35:46 2021
Timers Off: Sat Nov 13 06:19:31 2021

Wall Time:    42225.34 seconds

                                                       Time (seconds)
Module                                       User      System        Wall        Calls
DFH: sparsity prep                  :    104.733u      3.783s     43.138w    702 calls
DFH: initialize()                   :  76388.667u    933.733s   9341.679w    698 calls
DFH: AO Construction                :   9323.767u    105.000s   1135.242w    698 calls
DFH: AO-Met. Contraction            :  29458.017u    446.450s   3621.731w    698 calls
HF: Form core H                     :      7.800u      0.433s      2.278w    696 calls
HF: Form S/X                        :     32.450u      0.883s      4.021w    696 calls
HF: Guess                           :     84.867u      1.133s     10.417w    696 calls
SAD Guess                           :     81.250u      1.117s      9.951w     43 calls
HF: Form G                          :  53078.183u   5072.667s   7036.947w   8563 calls
JK: D                               :      5.283u      0.100s      1.220w   8563 calls
JK: USO2AO                          :      8.433u      0.133s      0.511w   8563 calls
JK: JK                              :  53040.150u   5071.817s   7032.773w   8563 calls
DFH: compute_JK()                   :  53037.633u   5071.783s   7032.703w   8563 calls
DFH: Grabbing AOs                   :      0.067u      0.017s      0.005w   8563 calls
DFH: compute_J                      :   2248.783u      5.267s    271.355w   8563 calls
DFH: compute_K                      :  50643.617u   5042.883s   6746.654w   8563 calls
JK: AO2USO                          :      0.750u      0.017s      0.016w   8563 calls
HF: Form F                          :      5.683u      0.267s      0.823w   8563 calls
HF: Form D                          :      5.700u      0.133s      1.228w   8563 calls
HF: DIIS                            :    211.767u     13.783s     27.371w   8520 calls
DIISManager::add_entry              :     52.483u      3.017s      5.216w   7867 calls
DIISManager::extrapolate            :     76.567u      7.467s     10.562w   7867 calls
bMatrix setup                       :     44.233u      4.250s      6.427w   7867 calls
bMatrix pseudoinverse               :      4.833u      0.250s      0.505w   7867 calls
New vector                          :     27.083u      2.933s      3.581w   7867 calls
HF: Form C                          :    390.150u      9.417s     47.876w   8520 calls
Grad: V T Perturb                   :   5441.050u      1.517s    653.803w    696 calls
Grad: S                             :     13.267u      0.083s      1.957w    696 calls
Grad: JK                            : 179873.083u   3054.050s  23307.151w    696 calls
JKGrad: Amn                         :  23945.017u   1002.400s   3487.967w    696 calls
JKGrad: Awmn                        :      0.000u      0.000s      0.001w    696 calls
JKGrad: AB                          :  53622.033u    717.650s   6741.515w    696 calls
JKGrad: UV                          :  15570.217u    443.650s   2164.963w    696 calls
JKGrad: ABx                         :   2484.767u     30.317s    303.310w    696 calls
JKGrad: Amnx                        :  83548.417u    813.083s  10515.832w    696 calls
Grad: XC                            :      0.000u      0.000s      0.000w    696 calls

--------------------------------------------------------------------------------------
DFH: sparsity prep                  :    104.733u      3.783s     43.138w    702 calls
DFH: initialize()                   :  76388.667u    933.733s   9341.679w    698 calls
| DFH: AO Construction              :   9323.767u    105.000s   1135.242w    698 calls
| DFH: AO-Met. Contraction          :  29458.017u    446.450s   3621.731w    698 calls
HF: Form core H                     :      7.800u      0.433s      2.278w    696 calls
HF: Form S/X                        :     32.450u      0.883s      4.021w    696 calls
HF: Guess                           :     84.867u      1.133s     10.417w    696 calls
| SAD Guess                         :     81.250u      1.117s      9.951w     43 calls
HF: Form G                          :  53078.183u   5072.667s   7036.947w   8563 calls
| JK: D                             :      5.283u      0.100s      1.220w   8563 calls
| JK: USO2AO                        :      8.433u      0.133s      0.511w   8563 calls
| JK: JK                            :  53040.150u   5071.817s   7032.773w   8563 calls
| | DFH: compute_JK()               :  53037.633u   5071.783s   7032.703w   8563 calls
| | | DFH: Grabbing AOs             :      0.067u      0.017s      0.005w   8563 calls
| | | DFH: compute_J                :   2248.783u      5.267s    271.355w   8563 calls
| | | DFH: compute_K                :  50643.617u   5042.883s   6746.654w   8563 calls
| JK: AO2USO                        :      0.750u      0.017s      0.016w   8563 calls
HF: Form F                          :      5.683u      0.267s      0.823w   8563 calls
HF: Form D                          :      5.700u      0.133s      1.228w   8563 calls
HF: DIIS                            :    211.767u     13.783s     27.371w   8520 calls
| DIISManager::add_entry            :     52.483u      3.017s      5.216w   7867 calls
| DIISManager::extrapolate          :     76.567u      7.467s     10.562w   7867 calls
| | bMatrix setup                   :     44.233u      4.250s      6.427w   7867 calls
| | bMatrix pseudoinverse           :      4.833u      0.250s      0.505w   7867 calls
| | New vector                      :     27.083u      2.933s      3.581w   7867 calls
HF: Form C                          :    390.150u      9.417s     47.876w   8520 calls
Grad: V T Perturb                   :   5441.050u      1.517s    653.803w    696 calls
Grad: S                             :     13.267u      0.083s      1.957w    696 calls
Grad: JK                            : 179873.083u   3054.050s  23307.151w    696 calls
| JKGrad: Amn                       :  23945.017u   1002.400s   3487.967w    696 calls
| JKGrad: Awmn                      :      0.000u      0.000s      0.001w    696 calls
| JKGrad: AB                        :  53622.033u    717.650s   6741.515w    696 calls
| JKGrad: UV                        :  15570.217u    443.650s   2164.963w    696 calls
| JKGrad: ABx                       :   2484.767u     30.317s    303.310w    696 calls
| JKGrad: Amnx                      :  83548.417u    813.083s  10515.832w    696 calls
Grad: XC                            :      0.000u      0.000s      0.000w    696 calls

**************************************************************************************

Host: DESKTOP-UJ2LAF7

Timers On : Sat Nov 13 08:29:30 2021
Timers Off: Sat Nov 13 09:01:31 2021

Wall Time:     1920.18 seconds

                                                       Time (seconds)
Module                                       User      System        Wall        Calls

--------------------------------------------------------------------------------------

**************************************************************************************

Host: DESKTOP-UJ2LAF7

Timers On : Fri Nov 19 13:41:20 2021
Timers Off: Fri Nov 19 13:41:31 2021

Wall Time:       11.51 seconds

                                                       Time (seconds)
Module                                       User      System        Wall        Calls

--------------------------------------------------------------------------------------

**************************************************************************************

Host: DESKTOP-UJ2LAF7

Timers On : Fri Nov 19 13:41:56 2021
Timers Off: Fri Nov 19 13:42:07 2021

Wall Time:       11.31 seconds

                                                       Time (seconds)
Module                                       User      System        Wall        Calls

--------------------------------------------------------------------------------------

**************************************************************************************

Host: DESKTOP-UJ2LAF7

Timers On : Fri Nov 19 13:46:43 2021
Timers Off: Fri Nov 19 13:46:54 2021

Wall Time:       11.24 seconds

                                                       Time (seconds)
Module                                       User      System        Wall        Calls

--------------------------------------------------------------------------------------

**************************************************************************************

Host: DESKTOP-UJ2LAF7

Timers On : Fri Nov 19 13:49:03 2021
Timers Off: Fri Nov 19 13:49:15 2021

Wall Time:       11.28 seconds

                                                       Time (seconds)
Module                                       User      System        Wall        Calls

--------------------------------------------------------------------------------------

**************************************************************************************

Host: DESKTOP-UJ2LAF7

Timers On : Fri Nov 19 13:49:34 2021
Timers Off: Fri Nov 19 13:49:45 2021

Wall Time:       11.23 seconds

                                                       Time (seconds)
Module                                       User      System        Wall        Calls

--------------------------------------------------------------------------------------

**************************************************************************************

Host: DESKTOP-UJ2LAF7

Timers On : Fri Nov 19 13:50:01 2021
Timers Off: Fri Nov 19 13:50:12 2021

Wall Time:       11.34 seconds

                                                       Time (seconds)
Module                                       User      System        Wall        Calls

--------------------------------------------------------------------------------------

**************************************************************************************

Host: DESKTOP-UJ2LAF7

Timers On : Fri Nov 19 13:57:01 2021
Timers Off: Fri Nov 19 13:57:12 2021

Wall Time:       11.18 seconds

                                                       Time (seconds)
Module                                       User      System        Wall        Calls

--------------------------------------------------------------------------------------

**************************************************************************************

Host: DESKTOP-UJ2LAF7

Timers On : Fri Nov 19 13:58:47 2021
Timers Off: Fri Nov 19 13:58:58 2021

Wall Time:       11.20 seconds

                                                       Time (seconds)
Module                                       User      System        Wall        Calls

--------------------------------------------------------------------------------------

**************************************************************************************

Host: DESKTOP-UJ2LAF7

Timers On : Fri Nov 19 13:59:41 2021
Timers Off: Fri Nov 19 13:59:52 2021

Wall Time:       11.58 seconds

                                                       Time (seconds)
Module                                       User      System        Wall        Calls

--------------------------------------------------------------------------------------

**************************************************************************************

Host: DESKTOP-UJ2LAF7

Timers On : Fri Nov 19 14:00:39 2021
Timers Off: Fri Nov 19 14:00:50 2021

Wall Time:       11.07 seconds

                                                       Time (seconds)
Module                                       User      System        Wall        Calls

--------------------------------------------------------------------------------------

**************************************************************************************

Host: DESKTOP-UJ2LAF7

Timers On : Fri Nov 19 14:01:26 2021
Timers Off: Fri Nov 19 14:01:38 2021

Wall Time:       11.28 seconds

                                                       Time (seconds)
Module                                       User      System        Wall        Calls

--------------------------------------------------------------------------------------

**************************************************************************************

Host: DESKTOP-UJ2LAF7

Timers On : Fri Nov 19 14:02:06 2021
Timers Off: Fri Nov 19 14:02:17 2021

Wall Time:       11.10 seconds

                                                       Time (seconds)
Module                                       User      System        Wall        Calls

--------------------------------------------------------------------------------------

**************************************************************************************

Host: DESKTOP-UJ2LAF7

Timers On : Fri Nov 19 14:02:58 2021
Timers Off: Fri Nov 19 14:03:10 2021

Wall Time:       11.33 seconds

                                                       Time (seconds)
Module                                       User      System        Wall        Calls

--------------------------------------------------------------------------------------

**************************************************************************************

Host: DESKTOP-UJ2LAF7

Timers On : Fri Nov 19 14:04:00 2021
Timers Off: Fri Nov 19 14:04:12 2021

Wall Time:       11.29 seconds

                                                       Time (seconds)
Module                                       User      System        Wall        Calls

--------------------------------------------------------------------------------------

**************************************************************************************

Host: DESKTOP-UJ2LAF7

Timers On : Fri Nov 19 14:05:09 2021
Timers Off: Fri Nov 19 14:05:21 2021

Wall Time:       11.23 seconds

                                                       Time (seconds)
Module                                       User      System        Wall        Calls

--------------------------------------------------------------------------------------

**************************************************************************************

Host: DESKTOP-UJ2LAF7

Timers On : Fri Nov 19 14:07:00 2021
Timers Off: Fri Nov 19 14:07:11 2021

Wall Time:       11.23 seconds

                                                       Time (seconds)
Module                                       User      System        Wall        Calls

--------------------------------------------------------------------------------------

**************************************************************************************

Host: DESKTOP-UJ2LAF7

Timers On : Fri Nov 19 14:10:44 2021
Timers Off: Fri Nov 19 14:10:55 2021

Wall Time:       11.42 seconds

                                                       Time (seconds)
Module                                       User      System        Wall        Calls

--------------------------------------------------------------------------------------

**************************************************************************************

Host: DESKTOP-UJ2LAF7

Timers On : Fri Nov 19 14:11:06 2021
Timers Off: Fri Nov 19 14:11:17 2021

Wall Time:       11.17 seconds

                                                       Time (seconds)
Module                                       User      System        Wall        Calls

--------------------------------------------------------------------------------------

**************************************************************************************

Host: DESKTOP-UJ2LAF7

Timers On : Fri Nov 19 14:16:24 2021
Timers Off: Fri Nov 19 14:28:51 2021

Wall Time:      746.73 seconds

                                                       Time (seconds)
Module                                       User      System        Wall        Calls

--------------------------------------------------------------------------------------

**************************************************************************************

Host: DESKTOP-UJ2LAF7

Timers On : Fri Nov 19 14:51:32 2021
Timers Off: Fri Nov 19 15:03:54 2021

Wall Time:      741.75 seconds

                                                       Time (seconds)
Module                                       User      System        Wall        Calls

--------------------------------------------------------------------------------------

**************************************************************************************

Host: DESKTOP-UJ2LAF7

Timers On : Fri Nov 19 15:09:26 2021
Timers Off: Fri Nov 19 15:21:27 2021

Wall Time:      721.13 seconds

                                                       Time (seconds)
Module                                       User      System        Wall        Calls

--------------------------------------------------------------------------------------

**************************************************************************************

Host: DESKTOP-UJ2LAF7

Timers On : Fri Nov 19 15:41:06 2021
Timers Off: Fri Nov 19 16:16:19 2021

Wall Time:     2113.12 seconds

                                                       Time (seconds)
Module                                       User      System        Wall        Calls

--------------------------------------------------------------------------------------

**************************************************************************************

Host: DESKTOP-UJ2LAF7

Timers On : Fri Nov 19 17:00:13 2021
Timers Off: Fri Nov 19 17:13:16 2021

Wall Time:      783.11 seconds

                                                       Time (seconds)
Module                                       User      System        Wall        Calls

--------------------------------------------------------------------------------------

**************************************************************************************

Host: DESKTOP-UJ2LAF7

Timers On : Fri Nov 19 17:34:22 2021
Timers Off: Fri Nov 19 17:47:08 2021

Wall Time:      765.78 seconds

                                                       Time (seconds)
Module                                       User      System        Wall        Calls

--------------------------------------------------------------------------------------

**************************************************************************************

Host: DESKTOP-UJ2LAF7

Timers On : Fri Nov 19 23:34:13 2021
Timers Off: Fri Nov 19 23:47:29 2021

Wall Time:      796.00 seconds

                                                       Time (seconds)
Module                                       User      System        Wall        Calls

--------------------------------------------------------------------------------------

**************************************************************************************

Host: DESKTOP-UJ2LAF7

Timers On : Sat Nov 20 08:44:07 2021
Timers Off: Sat Nov 20 08:45:07 2021

Wall Time:       59.63 seconds

                                                       Time (seconds)
Module                                       User      System        Wall        Calls

--------------------------------------------------------------------------------------

**************************************************************************************

Host: DESKTOP-UJ2LAF7

Timers On : Sat Nov 20 08:48:24 2021
Timers Off: Sat Nov 20 08:51:29 2021

Wall Time:      184.63 seconds

                                                       Time (seconds)
Module                                       User      System        Wall        Calls

--------------------------------------------------------------------------------------

**************************************************************************************
=======
>>>>>>> parent of 495bfb9 (AmesAll)

Host: DESKTOP-UJ2LAF7

Timers On : Wed Nov 24 18:43:06 2021
Timers Off: Wed Nov 24 19:19:37 2021

Wall Time:     2191.58 seconds

                                                       Time (seconds)
Module                                       User      System        Wall        Calls

--------------------------------------------------------------------------------------

**************************************************************************************

Host: DESKTOP-UJ2LAF7

Timers On : Thu Nov 25 01:09:40 2021
Timers Off: Thu Nov 25 01:46:14 2021

Wall Time:     2193.90 seconds

                                                       Time (seconds)
Module                                       User      System        Wall        Calls

--------------------------------------------------------------------------------------

**************************************************************************************
